/*--------------------------------*- C++ -*----------------------------------*\
| =========                 |                                                 |
| \\      /  F ield         | OpenFOAM: The Open Source CFD Toolbox           |
|  \\    /   O peration     | Version:  2.3.0                                 |
|   \\  /    A nd           | Web:      www.OpenFOAM.org                      |
|    \\/     M anipulation  |                                                 |
\*---------------------------------------------------------------------------*/
FoamFile
{
    version     2.0;
    format      ascii;
    class       surfaceScalarField;
    location    "0";
    object      phi;
}
// * * * * * * * * * * * * * * * * * * * * * * * * * * * * * * * * * * * * * //

dimensions      [0 3 -1 0 0 0 0];

internalField   nonuniform List<scalar> 
9399
(
1.87571
1.50424
-1.04819
1.41967
1.19739
-0.854143
1.16099
1.81896
1.13826
0.982
-0.786096
1.00151
1.31976
0.970301
1.32896
0.826292
-0.741402
0.8971
1.06443
-0.53076
0.833727
1.13809
0.710015
1.22592
0.707363
-0.701654
0.820614
0.897225
-0.574195
0.718767
1.01208
1.02057
0.662955
1.18515
0.667356
0.612335
-0.664646
0.759659
0.771468
-0.575885
0.622417
0.916964
0.912601
-0.466207
0.590339
1.08471
0.53614
1.31638
0.534254
-0.630235
0.708346
0.670033
-0.563216
0.54189
0.840203
0.805326
-0.468622
0.519636
0.987668
0.92857
0.465884
1.15496
0.32515
1.18373
0.46893
-0.598799
0.664103
0.58578
-0.545969
0.474242
0.775992
0.707882
-0.465747
0.456897
0.902958
0.826367
-0.366396
0.411417
1.04215
0.321127
1.15899
0.31179
0.413781
-0.570041
0.625217
0.514742
-0.527769
0.417055
0.721304
0.622437
-0.46054
0.402438
0.83045
0.729843
-0.36924
0.364379
0.949994
0.858314
0.293263
1.07003
0.211252
1.25955
0.36671
-0.543732
0.590777
0.454657
-0.509945
0.368381
0.673884
0.549025
-0.454332
0.355546
0.76821
0.643506
-0.374172
0.32336
0.871489
0.753509
-0.264408
0.263979
0.979277
0.17698
1.1043
-0.00242178
1.09791
0.326644
-0.519586
0.559677
0.403609
-0.492693
0.326868
0.632304
0.486295
-0.447234
0.31518
0.714248
0.569033
-0.379879
0.287705
0.803861
0.660917
-0.2816
0.237313
0.89817
0.73995
0.159011
0.997266
0.0323653
1.06951
-0.0214036
0.291928
-0.497081
0.531769
0.359874
-0.475843
0.290911
0.595625
0.432999
-0.439374
0.280248
0.667247
0.506141
-0.384312
0.25651
0.74546
0.584871
-0.303799
0.213476
0.827698
0.636018
-0.177637
0.14582
0.911354
0.0432624
0.98638
-0.0781706
1.1263
0.261887
-0.476102
0.506167
0.322326
-0.459544
0.260007
0.562685
0.387504
-0.43037
0.250038
0.62583
0.452893
-0.386149
0.229219
0.69453
0.523011
-0.322476
0.19216
0.76679
0.564446
-0.232255
0.134286
0.83925
0.545156
0.0487138
0.905901
-0.0667017
0.974898
-0.306475
0.862298
0.235611
-0.456363
0.482608
0.289799
-0.443568
0.232958
0.533204
0.348411
-0.42043
0.223482
0.58925
0.407665
-0.385115
0.205152
0.649914
0.471931
-0.335038
0.173113
0.713574
0.51206
-0.270056
0.123566
0.7775
0.505108
-0.192183
0.0513616
0.836612
-0.0468899
0.886106
-0.195673
0.8641
-0.275239
0.827104
0.21249
-0.437724
0.460867
0.26139
-0.427967
0.209251
0.506325
0.314483
-0.409664
0.200285
0.556396
0.36875
-0.381541
0.183906
0.610487
0.428684
-0.341895
0.155922
0.667116
0.469895
-0.292901
0.113241
0.723917
0.480139
-0.245104
0.0518841
0.776975
0.425132
-0.372404
-0.0305952
0.820302
-0.139381
0.829811
-0.227815
0.816678
-0.261086
0.822508
0.191939
-0.420079
0.440598
0.236367
-0.412696
0.188307
0.481798
0.284831
-0.398296
0.179809
0.526808
0.334914
-0.375804
0.164995
0.575322
0.391302
-0.344131
0.140342
0.626066
0.43372
-0.305691
0.103333
0.677012
0.455971
-0.268712
0.0505432
0.725263
0.460974
-0.280954
-0.0192631
0.765658
0.60756
-0.106445
0.787369
-0.189019
0.791013
-0.241203
0.796795
-0.265849
0.818726
0.173592
-0.403338
0.421704
0.214155
-0.397881
0.169697
0.459216
0.258613
-0.386504
0.161607
0.499995
0.30507
-0.36848
0.148095
0.543697
0.358345
-0.342875
0.126311
0.58936
0.401442
-0.311881
0.0938526
0.635562
0.431299
-0.281036
0.0479843
0.679567
0.458577
-0.266304
-0.0119261
0.717909
0.482605
-0.155972
-0.0852981
0.744506
-0.15975
0.758101
-0.21816
0.767968
-0.254128
0.785075
-0.284271
0.811659
0.15702
-0.387417
0.403958
0.194267
-0.383445
0.153046
0.43834
0.23525
-0.3745
0.145335
0.475492
0.278523
-0.359934
0.133009
0.515095
0.328911
-0.33902
0.113452
0.556554
0.372072
-0.313478
0.0846779
0.598522
0.406582
-0.287146
0.0446098
0.638939
0.444875
-0.267342
-0.00745353
0.675108
0.448306
-0.232026
-0.0708704
0.703482
0.32769
-0.389219
-0.137656
0.722409
-0.196336
0.736278
-0.238573
0.752411
-0.273479
0.774284
-0.317561
0.800922
0.142019
-0.372355
0.387373
0.176319
-0.369483
0.13799
0.419021
0.214225
-0.362448
0.13066
0.453009
0.254624
-0.350631
0.119348
0.489142
0.302276
-0.333329
0.101662
0.52689
0.344941
-0.311918
0.0761513
0.565095
0.38215
-0.289062
0.040714
0.602412
0.426836
-0.269098
-0.00516529
0.636632
0.433505
-0.252519
-0.0610043
0.665234
0.402966
-0.307298
-0.121064
0.68689
0.553226
-0.33652
-0.17749
0.703559
-0.222127
0.719833
-0.260323
0.739253
-0.305196
0.761921
-0.360114
0.786678
0.12826
-0.357989
0.371716
0.159977
-0.356011
0.124337
0.401011
0.195156
-0.350397
0.117433
0.43225
0.232941
-0.340744
0.107004
0.465364
0.277928
-0.326259
0.0909277
0.499875
0.319698
-0.308062
0.0680429
0.534986
0.358269
-0.288022
0.036407
0.569402
0.406545
-0.26878
-0.00433359
0.601591
0.419887
-0.2555
-0.0539487
0.629575
0.422231
-0.271786
-0.108173
0.652338
0.53373
-0.287798
-0.161311
0.670711
0.575611
-0.255474
-0.20634
0.68777
-0.246251
0.705763
-0.291531
0.725586
-0.345199
0.747009
-0.408137
0.769107
0.115677
-0.344394
0.356992
0.145037
-0.343064
0.111878
0.384181
0.177734
-0.338618
0.105389
0.413048
0.21312
-0.330607
0.0957384
0.443504
0.255535
-0.318382
0.0810836
0.475213
0.296075
-0.302665
0.060443
0.507487
0.335012
-0.284822
0.031994
0.539393
0.385008
-0.266478
-0.00444345
0.569491
0.403895
-0.252769
-0.0488923
0.596525
0.419419
-0.252686
-0.0981156
0.619516
0.516533
-0.254594
-0.147819
0.63884
0.522231
-0.234417
-0.191731
0.656104
0.598545
-0.171625
-0.231886
0.673401
-0.277113
0.691348
-0.329709
0.710092
-0.390281
0.729156
-0.463162
0.748141
0.103977
-0.331501
0.34317
0.131243
-0.330599
0.100417
0.368437
0.161704
-0.327019
0.0943542
0.395216
0.194856
-0.320335
0.0854464
0.423351
0.23481
-0.30986
0.0720334
0.452552
0.273871
-0.296154
0.0533083
0.482333
0.312513
-0.280152
0.0276306
0.511849
0.36285
-0.262674
-0.00512243
0.540081
0.385564
-0.248167
-0.0453244
0.56592
0.407017
-0.240369
-0.0901974
0.5886
0.497102
-0.233251
-0.136394
0.608091
0.484784
-0.217148
-0.178563
0.625667
0.5388
-0.17467
-0.218172
0.642391
0.585029
-0.0937322
-0.262708
0.658992
-0.313851
0.675494
-0.372144
0.691951
-0.441861
0.70786
-0.526712
0.723732
0.0931222
-0.319287
0.330154
0.118482
-0.318756
0.089838
0.353754
0.146894
-0.315817
0.0841838
0.378601
0.177932
-0.310126
0.0759977
0.404653
0.21549
-0.301045
0.0637197
0.431667
0.252942
-0.28896
0.0466522
0.45922
0.290794
-0.274453
0.023352
0.486607
0.340553
-0.25785
-0.00634918
0.513054
0.3657
-0.242794
-0.0428836
0.537629
0.390052
-0.231201
-0.0838689
0.559589
0.475401
-0.218672
-0.126778
0.578977
0.455213
-0.20368
-0.166904
0.596434
0.49536
-0.17371
-0.205207
0.612697
0.532523
-0.122161
-0.248427
0.628114
0.55031
-0.0424335
-0.298011
0.643147
-0.354112
0.657467
-0.420584
0.670669
-0.501318
0.682472
-0.603845
0.694883
0.0830134
-0.30778
0.317859
0.106579
-0.307385
0.0800225
0.339953
0.133078
-0.304928
0.0748365
0.363099
0.162193
-0.300061
0.0673229
0.387284
0.197463
-0.29208
0.0560285
0.412342
0.233206
-0.281287
0.0404505
0.437855
0.269902
-0.268056
0.0192257
0.463342
0.31838
-0.252291
-0.00778886
0.488053
0.34491
-0.23708
-0.0411389
0.511305
0.370816
-0.223561
-0.0786983
0.532449
0.45219
-0.20799
-0.118481
0.551291
0.429559
-0.193021
-0.156328
0.568396
0.461608
-0.169929
-0.19301
0.58424
0.4943
-0.135493
-0.234687
0.598952
0.522724
-0.094598
-0.282499
0.612606
0.566549
-0.233862
-0.336182
0.62521
-0.399332
0.636221
-0.475587
0.644933
-0.571691
0.650327
-0.708394
0.651536
0.0735219
-0.296881
0.306381
0.0954337
-0.29665
0.0708658
0.327018
0.120178
-0.294512
0.0661528
0.34863
0.147458
-0.290223
0.0592674
0.371141
0.180512
-0.28314
0.0489104
0.394403
0.214525
-0.273428
0.0346967
0.418107
0.249853
-0.261256
0.0152598
0.441816
0.296622
-0.246293
-0.00939524
0.464926
0.323872
-0.231239
-0.039913
0.486815
0.350489
-0.216754
-0.0744048
0.507009
0.428084
-0.19946
-0.111302
0.525262
0.405776
-0.184208
-0.146917
0.541882
0.433205
-0.164621
-0.181851
0.557231
0.463501
-0.139131
-0.221652
0.571209
0.499855
-0.112608
-0.267429
0.583877
0.62409
-0.152102
-0.318648
0.595079
0.787839
-0.0711134
-0.950589
-0.378566
0.604438
-0.450142
0.610783
-0.539071
0.612305
-0.658863
0.600804
-0.866662
0.4605
0.0645727
-0.286659
0.295579
0.084984
-0.286433
0.0623014
0.314928
0.108091
-0.284553
0.0580635
0.335104
0.133659
-0.2807
0.0518308
0.356074
0.1646
-0.274293
0.0423408
0.377709
0.196819
-0.265414
0.0293255
0.39976
0.230602
-0.254167
0.0115434
0.421819
0.275355
-0.240001
-0.0110042
0.443431
0.302819
-0.225259
-0.0390137
0.464023
0.329653
-0.210407
-0.0707668
0.483166
0.403559
-0.192229
-0.104981
0.500688
0.382917
-0.176604
-0.138465
0.516803
0.407673
-0.158678
-0.171474
0.531508
0.436487
-0.137614
-0.20918
0.544753
0.476852
-0.11615
-0.252723
0.556507
0.628512
-0.117069
-0.301503
0.566724
0.718834
-0.0831075
-0.358198
0.574718
0.790404
-0.0988418
-0.762662
0.00803705
-0.42537
0.579659
-0.507229
0.57895
-0.61192
0.565355
-0.754845
0.489021
-0.665264
0.52373
0.602048
0.0562331
-0.277108
0.285452
0.0751198
-0.27681
0.0542993
0.303583
0.096651
-0.27502
0.0505926
0.322393
0.120608
-0.27153
0.0449169
0.342005
0.149529
-0.265658
0.0362596
0.362154
0.179992
-0.257493
0.024366
0.382678
0.212199
-0.247028
0.00804937
0.403251
0.254776
-0.233584
-0.0126191
0.423412
0.282085
-0.219256
-0.0383627
0.442767
0.308751
-0.20436
-0.0676442
0.460898
0.378903
-0.185757
-0.0994354
0.477612
0.360566
-0.169882
-0.130742
0.492968
0.383734
-0.15267
-0.161799
0.50712
0.411432
-0.133624
-0.197438
0.519771
0.453234
-0.113983
-0.23877
0.530793
0.611598
-0.0992064
-0.285032
0.540044
0.67761
-0.0758386
-0.338504
0.547022
0.772901
-0.0656096
-0.401375
0.55073
0.950715
-0.0492812
-1.00025
-0.156442
-0.476847
0.549268
-0.569516
0.536556
-0.680217
0.490702
-0.671855
0.495604
-0.747077
0.507024
0.763797
0.568632
0.0483099
-0.268087
0.275983
0.0657941
-0.267786
0.0468095
0.292926
0.0858927
-0.266045
0.0435888
0.310581
0.108303
-0.262705
0.0385038
0.32881
0.135266
-0.257253
0.0306329
0.347629
0.16403
-0.249679
0.0197899
0.366717
0.19458
-0.239866
0.00484487
0.385876
0.234847
-0.227111
-0.0141122
0.404749
0.261713
-0.21323
-0.0378487
0.422894
0.287995
-0.198506
-0.0648745
0.439986
0.354389
-0.179848
-0.0944099
0.455873
0.33862
-0.163816
-0.123652
0.470514
0.360708
-0.146859
-0.1528
0.483972
0.387511
-0.128758
-0.186283
0.495957
0.429263
-0.109676
-0.225309
0.506316
0.585653
-0.0880745
-0.269064
0.514817
0.643202
-0.0648092
-0.319435
0.520983
0.739961
-0.0428926
-0.378344
0.523984
0.896725
-0.0116261
-0.448055
0.521947
1.08276
0.0748366
-1.20689
-0.108434
-1.04826
-0.531131
0.510875
-0.624166
0.480537
-0.654501
0.473371
-0.723811
0.47233
-0.897702
0.409311
0.995432
0.556422
0.0409197
-0.259799
0.267191
0.0570166
-0.259325
0.0397784
0.283015
0.075665
-0.257584
0.037051
0.299457
0.0966041
-0.254373
0.0325839
0.316488
0.121756
-0.249221
0.0254577
0.333983
0.148835
-0.242083
0.015613
0.351814
0.177741
-0.232855
0.00188922
0.369669
0.215688
-0.220703
-0.0155131
0.387256
0.241957
-0.207347
-0.0373603
0.404248
0.267644
-0.192882
-0.0623166
0.420335
0.330177
-0.1743
-0.0897681
0.435335
0.317009
-0.158241
-0.11702
0.449245
0.338263
-0.141377
-0.144303
0.46201
0.364249
-0.1236
-0.175701
0.473396
0.405195
-0.104681
-0.21243
0.483069
0.555868
-0.0798674
-0.253655
0.490915
0.609612
-0.0544816
-0.301115
0.496488
0.701543
-0.0263994
-0.356262
0.498909
0.841023
0.0128183
-0.420774
0.496696
0.983203
0.087912
-0.496235
0.487062
1.05368
0.197439
-1.17628
0.0596735
-1.375
-0.201541
-0.578411
0.465093
-0.62719
0.453216
-0.695752
0.445339
-0.829755
0.404363
-0.852147
0.411669
0.849859
0.399093
0.0339459
-0.252047
0.258996
0.0486612
-0.251449
0.033272
0.273682
0.0660105
-0.249666
0.0310301
0.289028
0.0855163
-0.246488
0.0271096
0.304933
0.108955
-0.241561
0.0207161
0.321226
0.13439
-0.234763
0.0117897
0.337793
0.161653
-0.225989
-0.000726179
0.354423
0.197222
-0.214402
-0.0166956
0.370857
0.222725
-0.201487
-0.0368463
0.386739
0.247667
-0.187375
-0.059949
0.401869
0.306386
-0.169095
-0.0854087
0.415977
0.295801
-0.153097
-0.110851
0.429158
0.316292
-0.136275
-0.136287
0.441232
0.34156
-0.118698
-0.165635
0.451935
0.381294
-0.0997216
-0.200065
0.461037
0.524454
-0.0733014
-0.238822
0.468226
0.575646
-0.0459141
-0.283431
0.47324
0.661331
-0.0142694
-0.334998
0.475217
0.785755
0.0288591
-0.394932
0.473078
0.898762
0.097267
-0.464145
0.464598
0.949487
0.192089
-0.538806
0.447485
0.964893
0.308156
-1.07561
0.203464
-1.3201
0.0486967
-1.62528
-0.596038
0.433963
-0.664894
0.422345
-0.776811
0.392426
-0.835093
0.387295
-0.995341
0.358244
1.04881
0.443456
0.805503
0.0275017
-0.244949
0.251393
0.0408138
-0.244214
0.0272241
0.265042
0.0568107
-0.242273
0.0254089
0.279296
0.074931
-0.239106
0.0220772
0.294048
0.0967081
-0.234267
0.0164126
0.309233
0.12057
-0.227765
0.00835143
0.324671
0.146212
-0.219336
-0.0030838
0.340147
0.179489
-0.208252
-0.0177103
0.355417
0.204152
-0.195821
-0.0362688
0.370265
0.228292
-0.182116
-0.0576082
0.384397
0.283211
-0.164206
-0.0812539
0.397704
0.275029
-0.148328
-0.104968
0.410098
0.29483
-0.131641
-0.128633
0.421495
0.31938
-0.114098
-0.155957
0.43156
0.357707
-0.0951022
-0.188198
0.440058
0.492694
-0.067944
-0.224501
0.446726
0.541456
-0.0391119
-0.266394
0.451182
0.620863
-0.00545446
-0.314624
0.452875
0.732222
0.0392664
-0.370372
0.45065
0.824625
0.102985
-0.434173
0.443119
0.860102
0.186658
-0.503149
0.428916
0.868973
0.288
-0.563681
0.415113
0.855062
0.403738
-0.950645
0.331012
-1.20317
0.211056
-1.48246
0.0604107
-2.03754
-0.632606
0.401699
-0.732067
0.377579
-0.809079
0.36647
-0.952581
0.344505
-1.01201
0.351066
1.01924
0.36792
1.12436
0.491882
0.0215304
-0.238429
0.244378
0.0334468
-0.237589
0.0216505
0.256952
0.0481156
-0.235519
0.0203061
0.270136
0.0648867
-0.232224
0.0175384
0.283834
0.0850488
-0.22744
0.0125231
0.297933
0.107425
-0.221113
0.00530225
0.31227
0.131466
-0.213017
-0.00510708
0.326686
0.162508
-0.202367
-0.0184746
0.340916
0.186264
-0.190379
-0.0355861
0.354731
0.209513
-0.177048
-0.0552986
0.367944
0.260607
-0.159516
-0.0772346
0.380381
0.254715
-0.143896
-0.0993003
0.392026
0.273848
-0.127351
-0.121246
0.402716
0.297661
-0.109934
-0.146644
0.412173
0.334505
-0.0909197
-0.176701
0.420069
0.461043
-0.0634818
-0.210777
0.426324
0.507419
-0.0339179
-0.250016
0.430358
0.580938
0.000810642
-0.2952
0.431752
0.68093
0.0458272
-0.347072
0.429588
0.75817
0.105725
-0.406244
0.422714
0.782368
0.180708
-0.470433
0.410429
0.785736
0.269898
-0.531539
0.396793
0.77183
0.371223
-0.599967
0.382456
0.707711
0.478145
-0.782119
0.44141
-1.06105
0.356842
-1.34895
0.219834
-1.64188
0.143164
-0.691724
0.361388
-0.77887
0.34735
-0.915084
0.329019
-0.998536
0.330955
-0.616431
0.627726
0.339778
0.373658
1.01349
0.368783
0.0161211
-0.232489
0.237895
0.0265493
-0.231544
0.0166151
0.249409
0.0398077
-0.229302
0.0156907
0.261559
0.0553021
-0.225956
0.0134156
0.274246
0.0739068
-0.221105
0.00906436
0.287287
0.0948066
-0.214843
0.00263029
0.300609
0.117338
-0.206999
-0.00678441
0.313943
0.146235
-0.196743
-0.0189717
0.327164
0.169057
-0.185156
-0.0347278
0.340043
0.191337
-0.172208
-0.052897
0.352329
0.238708
-0.155156
-0.0732661
0.363964
0.234965
-0.139772
-0.093765
0.374851
0.253409
-0.123463
-0.114101
0.384871
0.276503
-0.106196
-0.137633
0.393711
0.311832
-0.0872528
-0.16564
0.401102
0.429966
-0.0598293
-0.197518
0.406822
0.473971
-0.0300365
-0.234219
0.41052
0.541975
0.00503551
-0.276421
0.411592
0.632188
0.049551
-0.324755
0.409429
0.697832
0.106153
-0.379763
0.403122
0.713934
0.174163
-0.439894
0.39215
0.713003
0.253433
-0.50007
0.37894
0.699054
0.342675
-0.567365
0.364212
0.642441
0.436484
-0.654148
0.344851
0.573079
0.532554
-0.627491
0.526337
-0.867052
0.485277
-1.18948
0.384953
-1.51407
0.221427
-1.72015
-0.746667
0.329238
-0.88045
0.312683
-0.981589
0.312153
-0.607366
0.321942
0.643552
0.357867
-0.648281
0.656543
0.331512
0.401329
0.980945
0.0112478
-0.227118
0.231971
0.0202578
-0.226206
0.0121022
0.242395
0.0320714
-0.223812
0.0115725
0.253518
0.0461758
-0.220176
0.00982093
0.265152
0.0632825
-0.215328
0.00605326
0.277253
0.0827995
-0.209093
0.000384479
0.289522
0.103901
-0.201409
-0.008113
0.30193
0.130617
-0.191395
-0.0192039
0.314178
0.152479
-0.180181
-0.033675
0.326107
0.173784
-0.16761
-0.0504322
0.337566
0.217541
-0.151042
-0.0692978
0.348364
0.215837
-0.136022
-0.0883361
0.358525
0.233562
-0.119925
-0.107123
0.367877
0.25591
-0.102888
-0.128874
0.376102
0.289717
-0.0841076
-0.154907
0.382986
0.399589
-0.0569033
-0.184678
0.388255
0.441321
-0.0271911
-0.218944
0.391558
0.50427
0.00766367
-0.258349
0.392443
0.58598
0.0512329
-0.303497
0.39035
0.642649
0.104734
-0.354764
0.384425
0.653014
0.167061
-0.411026
0.374279
0.649009
0.238158
-0.469453
0.36155
0.635073
0.317408
-0.53523
0.346782
0.58467
0.400447
-0.61837
0.328465
0.524256
0.4853
-0.713892
0.312053
0.469483
0.571701
-0.508653
0.587342
-0.688504
0.583471
-0.965245
0.536629
-1.34116
0.413087
-1.70573
0.179776
-0.847404
0.296241
-0.963271
0.294304
-0.599831
0.304583
-0.641359
0.315074
0.669603
0.375296
0.666105
0.348348
-0.681614
0.687523
0.325551
0.46324
0.00716767
-0.222371
0.226448
0.0145743
-0.221444
0.00823777
0.235828
0.0247977
-0.21895
0.00806442
0.245892
0.0375222
-0.215178
0.00674531
0.256581
0.0532057
-0.21012
0.0034993
0.267698
0.0713224
-0.203872
-0.0014465
0.279084
0.0909618
-0.196168
-0.0090986
0.290502
0.11567
-0.186464
-0.0191442
0.301852
0.13658
-0.175496
-0.0324068
0.312896
0.156883
-0.163281
-0.0478046
0.323479
0.197149
-0.147212
-0.0652916
0.333548
0.197313
-0.132513
-0.0829284
0.342962
0.2143
-0.116771
-0.100258
0.351649
0.235931
-0.0999574
-0.120306
0.359317
0.268259
-0.0814295
-0.144495
0.365681
0.370125
-0.0546361
-0.1722
0.370523
0.409682
-0.0252671
-0.204208
0.373513
0.468012
0.009058
-0.240986
0.374211
0.54228
0.0513599
-0.283127
0.372069
0.591799
0.10207
-0.330845
0.366451
0.598237
0.15951
-0.383716
0.357092
0.592239
0.223822
-0.440036
0.344839
0.578486
0.294744
-0.503846
0.330182
0.533408
0.368661
-0.584003
0.312382
0.480556
0.444146
-0.680728
0.295349
0.43355
0.521242
-0.815287
0.279896
0.382192
0.598795
-0.409265
0.630061
-0.551365
0.652002
-0.75703
0.65167
-1.08028
0.597434
-1.5255
0.437651
-1.96359
-0.944063
0.277122
-0.59339
0.287925
-0.635904
0.299071
-0.676259
0.309838
0.443695
0.675957
0.365467
0.694063
0.341869
-0.709719
0.715362
0.320043
0.00387337
-0.218104
0.22138
0.00954885
-0.21736
0.00507539
0.229599
0.0181645
-0.214822
0.00513315
0.238749
0.0293844
-0.210817
0.00411025
0.248523
0.0435431
-0.205516
0.00142935
0.258647
0.0602749
-0.199071
-0.00287375
0.269117
0.078556
-0.191469
-0.00968072
0.279659
0.101341
-0.181848
-0.0187592
0.290119
0.121306
-0.171202
-0.030869
0.30031
0.140665
-0.159286
-0.0450359
0.310114
0.177543
-0.14368
-0.0611811
0.319371
0.179414
-0.129317
-0.0775317
0.328141
0.195696
-0.113908
-0.0934707
0.336178
0.216597
-0.097447
-0.11194
0.343274
0.247471
-0.079197
-0.13433
0.34916
0.341608
-0.0529418
-0.160124
0.353598
0.379158
-0.0241222
-0.189938
0.356265
0.433285
0.00945412
-0.224268
0.356791
0.500992
0.0503339
-0.263549
0.354651
0.5448
0.0983558
-0.308131
0.349348
0.548676
0.151619
-0.357694
0.340454
0.541492
0.210255
-0.411538
0.32861
0.528133
0.274166
-0.473197
0.314165
0.487712
0.340437
-0.550585
0.296796
0.441218
0.40799
-0.647813
0.279442
0.400619
0.477063
-0.783759
0.263868
0.356518
0.546904
-0.924697
0.260471
0.31597
0.617192
-0.334372
0.658268
-0.437484
0.697903
-0.597279
0.72902
-0.834389
0.735161
-1.21801
0.670787
-1.75863
0.464084
-2.39675
-0.588209
0.271905
-0.631628
0.283709
-0.671973
0.294676
-0.704868
0.304878
0.434007
0.700737
0.358816
0.721439
0.335829
-0.735107
0.74106
0.314206
0.00145407
-0.214243
0.216657
0.00529434
-0.213853
0.00254932
0.223897
0.0121933
-0.211402
0.00275237
0.231968
0.0218311
-0.207287
0.00212136
0.240727
0.0344092
-0.201703
-0.000118624
0.250063
0.0497982
-0.195057
-0.00383686
0.259605
0.0667042
-0.187229
-0.00987427
0.2693
0.0876633
-0.177788
-0.0180244
0.278907
0.106706
-0.167246
-0.029047
0.288282
0.125046
-0.155587
-0.0420394
0.297312
0.158724
-0.140467
-0.0569765
0.305898
0.162196
-0.126447
-0.0720912
0.313935
0.1778
-0.111408
-0.0867371
0.321396
0.197969
-0.0952856
-0.1037
0.327946
0.227381
-0.0773736
-0.124428
0.333364
0.314145
-0.0517465
-0.148369
0.337422
0.349773
-0.0235642
-0.176161
0.339815
0.400058
0.00909606
-0.208138
0.340156
0.462002
0.0484391
-0.244777
0.338012
0.501146
0.0939743
-0.286366
0.332905
0.503453
0.143575
-0.332895
0.324527
0.495765
0.197335
-0.384164
0.313053
0.483039
0.255345
-0.443436
0.298864
0.446735
0.315132
-0.51825
0.281793
0.405696
0.375961
-0.61503
0.264055
0.370499
0.438138
-0.75262
0.248259
0.332485
0.501133
-0.905181
0.24444
0.297956
0.564934
-0.584163
0.256493
0.268202
0.6295
-0.280499
0.676381
-0.352484
0.726846
-0.466417
0.778132
-0.646381
0.822635
-0.921871
0.840258
-1.38751
0.76267
-2.05722
0.533343
-0.628733
0.268951
-0.668345
0.280198
-0.70037
0.290317
-0.729625
0.299527
0.424794
0.727998
0.352276
0.747498
0.329482
-0.758573
0.764998
0.307904
-0.210761
0.21221
0.00206709
-0.21103
0.000862269
0.218333
0.00705398
-0.208732
0.00117758
0.22546
0.0149053
-0.204488
0.000696458
0.233387
0.0257461
-0.198626
-0.00117258
0.241775
0.0397467
-0.191645
-0.00430778
0.250527
0.0553217
-0.183667
-0.00968712
0.259412
0.0745815
-0.174148
-0.0169349
0.268213
0.0926208
-0.163711
-0.0269703
0.276826
0.110105
-0.152311
-0.0388723
0.285103
0.140681
-0.137547
-0.0526187
0.292956
0.145644
-0.123916
-0.0665908
0.300388
0.16058
-0.109234
-0.0800277
0.307229
0.180022
-0.0934828
-0.0955715
0.31326
0.208023
-0.0759592
-0.114716
0.318243
0.287707
-0.0509675
-0.136961
0.321951
0.321555
-0.0235421
-0.162786
0.32406
0.368369
0.00811794
-0.192595
0.324266
0.425181
0.0459058
-0.226721
0.322119
0.460545
0.0890345
-0.265553
0.317192
0.461989
0.135425
-0.309132
0.309167
0.454356
0.18498
-0.357747
0.298125
0.442438
0.237926
-0.414596
0.284186
0.409857
0.292218
-0.486685
0.267331
0.373549
0.347261
-0.582649
0.249388
0.342892
0.403539
-0.721688
0.23317
0.310066
0.46055
-0.885861
0.228877
0.280559
0.51855
-0.58157
0.241806
0.255487
0.57766
-0.626978
0.254805
0.230887
0.637622
-0.238993
0.687775
-0.291888
0.743566
-0.369207
0.806984
-0.495277
0.87324
-0.696991
0.938754
-1.02037
0.978203
-1.60303
0.878819
-2.40269
-0.665828
0.266328
-0.696708
0.276424
-0.724798
0.285414
-0.752537
0.293667
0.414958
0.754426
0.34538
0.771855
0.322722
-0.780712
0.787505
0.301259
-0.2087
0.213069
0.00292732
-0.206921
0.000189251
0.219309
0.00879871
-0.202643
-0.000178647
0.226325
0.0177999
-0.196553
-0.00172192
0.23393
0.0302859
-0.189174
-0.00439676
0.241858
0.0444836
-0.18082
-0.00910566
0.249935
0.0620502
-0.171143
-0.0155261
0.257988
0.0791787
-0.160699
-0.0246228
0.265852
0.0957613
-0.149358
-0.0354563
0.273408
0.123411
-0.135039
-0.0481199
0.280594
0.129764
-0.121669
-0.0610079
0.287377
0.143976
-0.107312
-0.0733087
0.293659
0.162715
-0.0919254
-0.0875418
0.299208
0.189339
-0.0748049
-0.105246
0.303782
0.262319
-0.0505882
-0.12584
0.30714
0.294556
-0.0239853
-0.149857
0.309015
0.338195
0.00662194
-0.17758
0.309065
0.390416
0.0428758
-0.209386
0.306924
0.422655
0.0837827
-0.245572
0.302158
0.4238
0.127218
-0.286428
0.294466
0.41661
0.173159
-0.33241
0.283802
0.405633
0.221778
-0.386636
0.270179
0.376471
0.2713
-0.456088
0.253551
0.344348
0.321414
-0.550633
0.235354
0.317632
0.372553
-0.69096
0.218612
0.289185
0.424492
-0.866448
0.213839
0.263882
0.477273
-0.580338
0.227715
0.242765
0.531275
-0.626563
0.241324
0.222228
0.586317
-0.663919
0.253012
0.20278
0.642357
-0.207515
0.694649
-0.245859
0.752733
-0.30105
0.820572
-0.38279
0.902772
-0.524798
0.984782
-0.74302
1.09016
-1.13234
1.1673
-1.89151
1.00278
-3.01856
-0.693349
0.263102
-0.720222
0.271956
-0.747118
0.279923
-0.774266
0.28738
0.404574
0.779151
0.33812
0.794648
0.315685
-0.802038
0.808927
0.294512
-0.205777
0.213256
0.00371216
-0.201843
-0.000377743
0.219499
0.0107264
-0.195567
-0.00167183
0.226269
0.0214282
-0.18769
-0.00391551
0.233442
0.034084
-0.178765
-0.00805501
0.240799
0.0500129
-0.168765
-0.0137514
0.248159
0.0662978
-0.158251
-0.0219529
0.255313
0.0819958
-0.146939
-0.0318035
0.262189
0.106926
-0.132885
-0.0434353
0.268722
0.114501
-0.119782
-0.0553456
0.274924
0.128084
-0.105783
-0.0665889
0.280658
0.14616
-0.0907748
-0.0796298
0.28574
0.17146
-0.0740756
-0.0959503
0.289919
0.238021
-0.0505392
-0.115039
0.292976
0.268733
-0.0247841
-0.137321
0.294614
0.309456
0.00474455
-0.163108
0.294536
0.357572
0.0394552
-0.19269
0.292387
0.387254
0.0782697
-0.226442
0.287784
0.388479
0.11909
-0.264634
0.280386
0.382011
0.16181
-0.308015
0.270087
0.372143
0.206638
-0.35965
0.256791
0.346138
0.252103
-0.426261
0.240381
0.317715
0.297912
-0.519105
0.221997
0.29439
0.34461
-0.660216
0.204654
0.26969
0.392004
-0.84723
0.199333
0.248029
0.440378
-0.580828
0.214278
0.230256
0.489871
-0.627277
0.228497
0.213136
0.540441
-0.663089
0.240388
0.197063
0.592076
-0.69079
0.250337
0.180722
0.644401
-0.182716
0.698552
-0.211402
0.758017
-0.251135
0.824212
-0.304685
0.91085
-0.390865
1.02218
-0.562195
1.09995
-0.752801
1.31755
-1.28258
1.42568
-2.31442
1.19044
-0.716245
0.259031
-0.741802
0.266802
-0.768393
0.273969
-0.795384
0.280931
0.393763
0.80215
0.330658
0.816122
0.308606
-0.822657
0.829494
0.287868
-0.20207
0.212878
0.00459981
-0.195729
-0.00108164
0.218902
0.0131999
-0.187345
-0.00307141
0.22542
0.0241911
-0.177798
-0.00665508
0.232035
0.0385893
-0.167349
-0.0116596
0.238696
0.0539669
-0.156451
-0.0189784
0.245171
0.0687317
-0.144996
-0.0278895
0.251394
0.0911707
-0.131176
-0.0385805
0.257326
0.0998866
-0.118261
-0.0495649
0.262944
0.112825
-0.104527
-0.0598664
0.268193
0.130263
-0.089895
-0.0717995
0.272835
0.154243
-0.0735677
-0.0868523
0.276634
0.214739
-0.0508054
-0.104497
0.279395
0.24406
-0.0258801
-0.12518
0.280827
0.282111
0.00255023
-0.149118
0.280643
0.326513
0.0357944
-0.176661
0.278497
0.354039
0.0726568
-0.208067
0.27403
0.355675
0.111065
-0.243791
0.266917
0.350161
0.150927
-0.284624
0.256964
0.34147
0.192475
-0.333565
0.244016
0.318387
0.234374
-0.397355
0.227848
0.293331
0.276477
-0.487977
0.20929
0.272986
0.319328
-0.629579
0.191311
0.25158
0.362765
-0.827798
0.185298
0.233026
0.407047
-0.582943
0.201511
0.218117
0.452526
-0.629375
0.216299
0.203881
0.499127
-0.662794
0.228315
0.190763
0.546757
-0.688506
0.238229
0.177556
0.595255
-0.712452
0.246641
0.162203
0.643721
-0.161493
0.699608
-0.183749
0.761081
-0.214456
0.826241
-0.253156
0.899324
-0.293149
1.02934
-0.398007
1.17653
-0.638772
1.14584
-0.737084
0.254219
-0.762615
0.261155
-0.789325
0.267836
-0.816112
0.274566
0.382726
0.823593
0.323229
0.836535
0.301685
-0.843004
0.849519
0.28153
-0.197466
0.211795
0.00596576
-0.18848
-0.00178062
0.217604
0.0150597
-0.178201
-0.00484116
0.223596
0.0277583
-0.166962
-0.00919742
0.229566
0.0420798
-0.155451
-0.0157278
0.235438
0.0560458
-0.143746
-0.023779
0.241052
0.0761561
-0.129974
-0.0335732
0.246385
0.0858795
-0.117185
-0.0436938
0.251449
0.0982492
-0.103712
-0.053129
0.256205
0.115067
-0.0893625
-0.0640469
0.260434
0.137747
-0.0734304
-0.0779322
0.263918
0.192496
-0.0513519
-0.0942705
0.266402
0.220522
-0.0272809
-0.113406
0.267628
0.2561
0.000120543
-0.135647
0.267348
0.297146
0.0319079
-0.161214
0.265212
0.322906
0.066919
-0.190467
0.260884
0.325168
0.103151
-0.223772
0.254034
0.320725
0.140492
-0.26212
0.244432
0.31327
0.179114
-0.308459
0.231831
0.292933
0.217919
-0.369242
0.215928
0.270916
0.256767
-0.457409
0.197258
0.253207
0.296208
-0.598822
0.178577
0.234624
0.336221
-0.808353
0.1718
0.218765
0.377012
-0.587065
0.189361
0.206268
0.418964
-0.632563
0.204765
0.194509
0.462001
-0.663484
0.216881
0.183899
0.506072
-0.686943
0.226631
0.173351
0.551017
-0.709201
0.234867
0.161279
0.596216
-0.732421
0.242128
0.145313
0.640137
-0.141664
0.697142
-0.158976
0.761994
-0.184632
0.829772
-0.217975
0.89431
-0.248135
0.966349
-0.230159
1.24938
-0.470862
1.32975
-0.757352
0.248851
-0.783285
0.255298
-0.810059
0.261691
-0.836677
0.268461
0.371718
0.843786
0.316023
0.856245
0.295116
-0.862958
0.869075
0.275722
-0.191504
0.210013
0.00682898
-0.180261
-0.00259125
0.215344
0.0174957
-0.167947
-0.00640048
0.22079
0.0307021
-0.155587
-0.0121957
0.226023
0.0438728
-0.143292
-0.0194187
0.231071
0.0618342
-0.12945
-0.0283711
0.235843
0.0725044
-0.116612
-0.037698
0.240389
0.0842741
-0.103199
-0.0463837
0.244696
0.100474
-0.0891013
-0.0564012
0.248564
0.12192
-0.0735239
-0.0692141
0.251708
0.171235
-0.0521665
-0.0842886
0.25395
0.198048
-0.0288849
-0.102026
0.255012
0.231337
-0.00252794
-0.122631
0.25463
0.269382
0.0278753
-0.146382
0.252507
0.293637
0.061166
-0.173547
0.248308
0.296657
0.095421
-0.20463
0.241716
0.293382
0.130481
-0.240565
0.232448
0.28721
0.166541
-0.284238
0.220221
0.269469
0.202562
-0.342062
0.204614
0.250259
0.238564
-0.427331
0.185886
0.234898
0.275079
-0.568109
0.166496
0.218839
0.312015
-0.788442
0.158733
0.205295
0.349694
-0.593083
0.177876
0.194818
0.388425
-0.637112
0.19382
0.185174
0.428255
-0.664605
0.205993
0.176692
0.469209
-0.685527
0.215584
0.168432
0.51103
-0.706058
0.223575
0.15902
0.553305
-0.728277
0.230622
0.146608
0.59494
-0.752131
0.237022
0.129255
0.633627
-0.122709
0.690255
-0.134742
0.758594
-0.155545
0.833606
-0.188449
0.900993
-0.224646
0.946156
-0.227932
0.971835
-0.777805
0.243272
-0.804051
0.249428
-0.830903
0.25583
-0.857054
0.262811
0.360907
0.863107
0.309217
0.875238
0.289135
-0.882888
0.888375
0.270575
-0.184667
0.207421
0.00813866
-0.170887
-0.00335094
0.212286
0.0199353
-0.157172
-0.00839283
0.216977
0.0320713
-0.143784
-0.014868
0.221466
0.0481421